
Host: Josef-LT

Timers On : Fri Aug 29 14:58:58 2025
Timers Off: Fri Aug 29 14:58:59 2025

Wall Time:        0.72 seconds

                                                       Time (seconds)
Module                                       User      System        Wall        Calls

--------------------------------------------------------------------------------------

**************************************************************************************
